version 2
run debug-0-20160407-21:52:06-23127
attr configname debug
attr datetime 20160407-21:52:06
attr experiment debug
attr inifile omnetpp.ini
attr iterationvars ""
attr iterationvars2 $repetition=0
attr measurement ""
attr network DDashNetwork
attr processid 23127
attr repetition 0
attr replication #0
attr resultdir results
attr runnumber 0
attr seedset 0

vector 26  DDashNetwork.node[0].veinsmobility  posx  ETV
vector 27  DDashNetwork.node[0].veinsmobility  posy  ETV
vector 28  DDashNetwork.node[0].veinsmobility  speed  ETV
vector 29  DDashNetwork.node[0].veinsmobility  acceleration  ETV
vector 30  DDashNetwork.node[0].veinsmobility  co2emission  ETV
vector 33  DDashNetwork.node[1].veinsmobility  posx  ETV
vector 34  DDashNetwork.node[1].veinsmobility  posy  ETV
vector 35  DDashNetwork.node[1].veinsmobility  speed  ETV
vector 36  DDashNetwork.node[1].veinsmobility  acceleration  ETV
vector 37  DDashNetwork.node[1].veinsmobility  co2emission  ETV
vector 40  DDashNetwork.node[2].veinsmobility  posx  ETV
vector 41  DDashNetwork.node[2].veinsmobility  posy  ETV
vector 42  DDashNetwork.node[2].veinsmobility  speed  ETV
vector 43  DDashNetwork.node[2].veinsmobility  acceleration  ETV
vector 44  DDashNetwork.node[2].veinsmobility  co2emission  ETV
30	148	10.3	1.1451838434682
30	149	10.4	1.1596683071044
30	150	10.5	1.1713158788657
30	151	10.6	1.1872067824617
30	152	10.7	1.1924613661549
30	153	10.8	1.2115884150222
30	154	10.9	1.2095996886679
30	155	11	1.2377994523327
30	156	11.1	1.2366144913984
30	157	11.2	1.2425284756563
30	158	11.3	1.2711405776718
30	159	11.4	1.2795295289794
30	160	11.5	1.3055116953884
30	161	11.6	1.2596759891594
30	162	11.7	1.3556641825067
30	163	11.8	1.2706818162847
30	164	11.9	1.3577423703602
30	165	12	1.3586505462463
30	166	12.1	1.3594909552079
30	167	12.2	1.3287677062094
30	168	12.3	1.3339094896727
30	169	12.4	1.3826551677453
30	170	12.5	1.401291900597
30	171	12.6	1.3993150382376
30	172	12.7	1.4386302528413
30	173	12.8	1.3622067730871
30	174	12.9	1.3840252525544
30	175	13	1.5279104453409
30	176	13.1	1.4960754355299
30	177	13.2	1.558553806487
30	178	13.3	1.4641391329164
30	179	13.4	1.6029810556774
30	180	13.5	1.547413511195
30	181	13.6	1.4599065485484
30	182	13.7	1.4401106259764
30	183	13.8	1.4864652918603
30	184	13.9	1.6425191414975
30	185	14	1.4854176477221
30	186	14.1	1.4925760029576
30	187	14.2	1.4732569432197
30	188	14.3	1.6053789791659
30	189	14.4	1.5340139510192
30	190	14.5	1.5415266912647
30	191	14.6	1.6395958173621
30	192	14.7	1.6357398410747
30	193	14.8	1.5751292393326
30	194	14.9	1.6118963557565
30	195	15	1.7831652297685
30	196	15.1	1.6224314667227
30	197	15.2	1.6554527389503
30	198	15.3	1.6829842813884
30	199	15.4	1.8304605422828
30	200	15.5	1.7217466070397
30	201	15.6	1.6019115498811
30	202	15.7	1.6688434549792
30	203	15.8	1.7558137085734
30	204	15.9	1.9085692628261
30	205	16	1.8190483616977
30	206	16.1	1.8112660061094
30	207	16.2	1.8983733768013
30	208	16.3	1.9422545751304
30	209	16.4	1.7403636588867
30	210	16.5	1.7626739197022
30	211	16.6	1.8781958361055
30	212	16.7	1.9836127697425
30	213	16.8	1.8607990359358
30	214	16.9	2.0451724682513
30	215	17	2.1102296094418
30	216	17.1	2.0023599204814
30	217	17.2	1.8932644152909
30	218	17.3	2.1033019686587
30	219	17.4	1.9198028584607
30	220	17.5	2.1013312121886
30	221	17.6	1.9414034173407
30	222	17.7	2.0555990520084
30	223	17.8	1.8152808386371
30	224	17.9	1.840706343128
30	225	18	1.9499289881742
30	226	18.1	2.0684151882541
30	227	18.2	2.1242062986994
30	228	18.3	2.015809422366
30	229	18.4	2.1121284671257
30	230	18.5	1.8957794129359
30	231	18.6	2.0043607931524
30	232	18.7	2.3153403868314
30	233	18.8	2.3535715274141
30	234	18.9	1.9013507791464
30	235	19	2.0651913742961
30	236	19.1	2.0822076376297
30	237	19.2	2.0829448603254
30	238	19.3	2.3616573982659
30	239	19.4	2.3571215432047
30	240	19.5	2.2918172745162
30	241	19.6	2.4342772993615
30	242	19.7	2.100488407338
30	243	19.8	2.3572931233648
30	244	19.9	2.2035217130003
30	245	20	2.3562552994535
30	246	20.1	2.3931690015921
30	247	20.2	2.2620609147332
30	248	20.3	2.5931680395772
30	249	20.4	2.368675022884
30	250	20.5	2.261751931362
30	251	20.6	2.0538819148564
30	252	20.7	2.0784483794635
30	253	20.8	2.6220284617674
30	254	20.9	2.290686451652
30	255	21	2.5849720674501
30	256	21.1	2.3259775565668
30	257	21.2	2.6455014303613
30	258	21.3	2.1142114567559
30	259	21.4	2.3464021155988
30	260	21.5	2.404204330836
30	261	21.6	2.6368315881245
30	262	21.7	2.5431698065215
30	263	21.8	2.5211264435164
30	264	21.9	2.5281986763353
30	265	22	2.7019240095535
30	266	22.1	2.4508836672794
30	267	22.2	2.7918522741716
30	268	22.3	2.6808361448869
30	269	22.4	2.8608804816635
30	270	22.5	2.4665437788349
30	271	22.6	2.4902369729544
30	272	22.7	2.752013859762
30	273	22.8	2.9014843681888
30	274	22.9	2.4362645381833
30	275	23	2.8871151711641
30	276	23.1	2.3276252280055
30	277	23.2	2.7814881828871
30	278	23.3	2.56783150513
30	279	23.4	2.4546281304208
30	280	23.5	3.0987235165804
30	281	23.6	3.0525974760793
30	282	23.7	2.6496447403195
30	283	23.8	2.4874683414518
30	284	23.9	2.6287824855198
30	285	24	3.1112641686726
30	286	24.1	2.4090427637046
30	287	24.2	2.4121967230094
30	288	24.3	2.500446889708
30	289	24.4	2.8502651059474
30	290	24.5	2.8290172173961
30	291	24.6	2.4465263641837
30	292	24.7	3.2378144569281
30	293	24.8	2.785228232178
30	294	24.9	2.92949398966
30	295	25	2.6924647453905
30	296	25.1	3.332572717826
30	297	25.2	3.3362819290525
30	298	25.3	2.9973409397608
30	299	25.4	3.1538409202257
30	300	25.5	2.5413720534675
30	301	25.6	3.327784479172
30	302	25.7	3.1275643791581
30	303	25.8	3.2011131825336
30	304	25.9	3.0457736554395
30	305	26	3.3977589617416
30	306	26.1	2.8804167541151
30	307	26.2	3.2415071967963
30	308	26.3	2.7222263008006
30	309	26.4	3.1758557894658
30	310	26.5	2.7057846833701
30	311	26.6	3.5394380638756
30	312	26.7	3.4105801240342
30	313	26.8	2.9613730239483
30	314	26.9	3.0973853899867
30	315	27	3.1083356634101
30	316	27.1	2.8234526679926
30	317	27.2	3.432425948717
30	318	27.3	3.2035689822896
30	319	27.4	3.202324887765
30	320	27.5	2.8147064179243
30	321	27.6	3.6652752729087
30	322	27.7	2.8320765257176
30	323	27.8	3.1968668776619
30	324	27.9	3.7230250885656
30	325	28	2.8560715274424
30	326	28.1	3.5493714231812
30	327	28.2	3.5230475765439
30	328	28.3	3.8698194388087
30	329	28.4	3.1843079708728
30	330	28.5	3.0071695687663
30	331	28.6	3.7859121491314
30	332	28.7	3.2431342380289
30	333	28.8	3.1790226413001
30	334	28.9	3.0522899554032
30	335	29	3.6710825418002
30	336	29.1	3.71561175196
30	337	29.2	3.82447817888
30	338	29.3	3.601493628262
30	339	29.4	3.4033308969477
30	340	29.5	3.4541895257678
30	341	29.6	4.0768916547892
30	342	29.7	3.9318226512686
30	343	29.8	3.1826395683438
30	344	29.9	3.7251958750085
30	345	30	4.1686371439654
30	346	30.1	4.023905680199
30	347	30.2	3.4146842256206
30	348	30.3	3.9108413339835
30	349	30.4	3.3727216026323
30	350	30.5	3.1116999943442
30	351	30.6	3.9779365509922
30	352	30.7	3.5995425940704
30	353	30.8	3.5932600929037
30	354	30.9	3.6302395782001
30	355	31	4.0721268127786
30	356	31.1	3.1909689224841
30	357	31.2	3.8243087943617
30	358	31.3	3.3431286936787
30	359	31.4	3.5357233066579
30	360	31.5	4.0511339578436
30	361	31.6	3.4182899891696
30	362	31.7	3.9556474329562
30	363	31.8	3.3563118338767
30	364	31.9	3.7472523343956
30	365	32	3.3761913089281
30	366	32.1	3.6280509313389
30	367	32.2	3.5975458325399
30	368	32.3	3.8985790518597
30	369	32.4	0.973
30	370	32.5	0.973
30	371	32.6	0.973
30	372	32.7	0.973
30	373	32.8	0.973
30	374	32.9	0.973
30	375	33	0.973
30	376	33.1	0.973
30	377	33.2	0.973
30	378	33.3	0.973
30	379	33.4	0.973
30	380	33.5	0.973
30	381	33.6	0.973
30	382	33.7	0.973
30	383	33.8	0.973
30	384	33.9	0.973
30	385	34	0.973
30	386	34.1	0.973
30	387	34.2	0.973
30	388	34.3	0.973
30	389	34.4	0.973
30	390	34.5	0.973
30	391	34.6	0.973
30	392	34.7	0.973
30	393	34.8	0.973
30	394	34.9	0.973
30	395	35	0.973
30	396	35.1	0.973
30	397	35.2	0.973
30	398	35.3	0.973
30	399	35.4	0.973
30	400	35.5	0.973
30	401	35.6	0.973
30	402	35.7	0.973
30	403	35.8	0.973
30	404	35.9	0.973
30	405	36	0.973
30	406	36.1	0.973
30	407	36.2	0.973
30	408	36.3	0.973
30	409	36.4	0.973
30	410	36.5	0.973
30	411	36.6	0.973
30	412	36.7	0.973
30	413	36.8	0.973
30	414	36.9	0.973
30	415	37	0.973
30	416	37.1	0.973
30	417	37.2	0.973
30	418	37.3	0.973
30	419	37.4	0.973
30	420	37.5	0.973
30	421	37.6	0.973
30	422	37.7	0.973
30	423	37.8	0.973
30	424	37.9	0.973
30	425	38	0.973
30	426	38.1	0.973
30	427	38.2	0.973
30	428	38.3	0.973
30	429	38.4	0.973
30	430	38.5	0.973
30	431	38.6	0.973
30	432	38.7	0.973
30	433	38.8	0.973
30	434	38.9	0.973
30	435	39	0.973
30	436	39.1	0.973
30	437	39.2	0.973
30	438	39.3	0.973
30	439	39.4	0.973
30	440	39.5	0.973
30	441	39.6	0.973
30	442	39.7	0.973
30	443	39.8	1.1125751178343
30	444	39.9	0.973
30	445	40	1.1123586266108
30	446	40.1	1.1118238430312
30	447	40.2	1.1121154625712
30	448	40.3	1.1117358815445
30	449	40.4	1.1119666815102
30	450	40.5	1.1117907254505
30	451	40.6	1.1116551279942
30	452	40.7	1.1114849489767
30	453	40.8	1.1112495209078
30	454	40.9	1.11130028645
30	455	41	1.1111521457647
30	456	41.1	1.1110190852458
30	457	41.2	1.1109568508537
30	458	41.3	1.1109628688308
30	459	41.4	1.1107924042081
30	460	41.5	1.1107757517935
30	461	41.6	1.1107058144077
30	462	41.7	1.1105924046373
30	463	41.8	1.1105803290922
30	464	41.9	1.1105147379058
30	465	42	1.1104608641798
30	466	42.1	1.1104136229518
30	467	42.2	1.1103843040192
30	468	42.3	1.1103406851675
30	469	42.4	1.11032439364
30	470	42.5	1.1102795522132
30	471	42.6	1.1102667433331
30	472	42.7	1.110226894102
30	473	42.8	1.1102119503457
30	474	42.9	1.1101968629579
30	475	43	1.110168961873
30	476	43.1	1.1101565316924
30	477	43.2	1.1101454093198
30	478	43.3	1.1101309784372
30	479	43.4	1.1101161116134
30	480	43.5	1.1101081517854
30	481	43.6	1.1100961621919
30	482	43.7	1.1100858024611
30	483	43.8	1.1100777916695
30	484	43.9	1.110069857925
30	485	44	1.1100637500396
30	486	44.1	1.1100565062686
30	487	44.2	1.110050344366
30	488	44.3	1.1100474607032
30	489	44.4	1.1100417726748
30	490	44.5	1.1100385393548
30	491	44.6	1.1100336358309
30	492	44.7	1.1100309664775
30	493	44.8	1.1100276744732
30	494	44.9	1.110025505156
30	495	45	1.1100230158173
30	496	45.1	1.1285535581652
30	497	45.2	1.1464717288109
30	498	45.3	1.1581424860486
30	499	45.4	1.1723868939089
30	500	45.5	1.1844578804995
30	501	45.6	1.1910026948713
30	502	45.7	1.2273326435616
30	503	45.8	1.2237276011582
30	504	45.9	1.2319423643421
30	505	46	1.2167544545799
30	506	46.1	1.2684082282847
30	507	46.2	1.2860627195171
30	508	46.3	1.3146065091597
30	509	46.4	1.340771479815
30	510	46.5	1.2624671933372
30	511	46.6	1.2970531612547
30	512	46.7	1.2933352945736
30	513	46.8	1.3110591873124
30	514	46.9	1.3856964687395
30	515	47	1.3578244933648
30	516	47.1	1.359884778329
30	517	47.2	1.34098914386
30	518	47.3	1.3755885494834
30	519	47.4	1.445671018933
30	520	47.5	1.4231027339968
30	521	47.6	1.3653577895204
30	522	47.7	1.4378645981655
30	523	47.8	1.4103398735986
30	524	47.9	1.4606894729534
30	525	48	1.4310016924574
30	526	48.1	1.4802803944823
30	527	48.2	1.4237567866023
30	528	48.3	1.5628220738628
30	529	48.4	1.457554237987
30	530	48.5	1.4233028492061
30	531	48.6	1.4534641747062
30	532	48.7	1.4787392144138
30	533	48.8	1.4409819123119
30	534	48.9	1.4998420290533
30	535	49	1.6859596566181
30	536	49.1	1.6398527317302
30	537	49.2	1.6193671209074
30	538	49.3	1.6277306024692
30	539	49.4	1.6747918419196
30	540	49.5	1.6614567441872
30	541	49.6	1.7522905287584
30	542	49.7	1.526955509173
30	543	49.8	1.6968227961209
30	544	49.9	1.6620897474089
30	545	50	1.7402469860169
30	546	50.1	1.6187764738318
30	547	50.2	1.6314513602497
30	548	50.3	1.7571192394015
30	549	50.4	1.7677832520955
30	550	50.5	1.6121225807131
30	551	50.6	1.9073012337314
30	552	50.7	1.9394049312185
30	553	50.8	1.6965301759516
30	554	50.9	1.6658366722911
30	555	51	1.9544449349297
30	556	51.1	1.7111911884768
30	557	51.2	1.8617466195271
30	558	51.3	1.7225579786599
30	559	51.4	1.7687618207383
30	560	51.5	1.9576989436584
30	561	51.6	2.051710999909
30	562	51.7	1.9721618803094
30	563	51.8	1.9234890185396
30	564	51.9	1.8441180892856
30	565	52	1.7838283084705
30	566	52.1	1.9887395187178
30	567	52.2	1.9472956253069
30	568	52.3	2.1546030765224
30	569	52.4	2.107324393916
30	570	52.5	1.8695961210769
30	571	52.6	2.1474466510461
30	572	52.7	1.9769408224226
30	573	52.8	1.8475746478933
30	574	52.9	2.178618573275
30	575	53	1.8507868723225
30	576	53.1	1.9171059056464
30	577	53.2	2.0841971001115
30	578	53.3	2.1761372472175
30	579	53.4	2.1375223911453
30	580	53.5	2.0351194242414
30	581	53.6	1.9755738039621
30	582	53.7	2.1233992255404
30	583	53.8	2.3248674699486
30	584	53.9	2.2719870916614
30	585	54	2.2617353390956
30	586	54.1	1.9385362088129
30	587	54.2	2.391964987625
30	588	54.3	2.1821411894626
30	589	54.4	1.9912818742749
30	590	54.5	2.2497671722148
30	591	54.6	2.0270894389888
30	592	54.7	2.019326185404
30	593	54.8	2.2723959861148
30	594	54.9	2.3691489788769
30	595	55	2.5603271086525
30	596	55.1	2.4532240096128
30	597	55.2	2.6078842474107
30	598	55.3	2.0517244343396
30	599	55.4	2.3358724665802
30	600	55.5	2.1301208848028
30	601	55.6	2.6100454982952
30	602	55.7	2.327451459537
30	603	55.8	2.6040974688061
30	604	55.9	2.1999198052322
30	605	56	2.673845081087
30	606	56.1	2.49342855017
30	607	56.2	2.1531638315417
30	608	56.3	2.6092244635978
30	609	56.4	2.3012842114633
30	610	56.5	2.1648234731132
30	611	56.6	2.5203650579811
30	612	56.7	2.8271875777889
30	613	56.8	2.2728479693479
30	614	56.9	2.2226260669611
30	615	57	2.4534439502382
30	616	57.1	2.2810002603408
30	617	57.2	2.8671799399462
30	618	57.3	2.7592155207729
30	619	57.4	2.3359798496042
30	620	57.5	2.9456472126327
30	621	57.6	2.4975467215408
30	622	57.7	2.8035892773836
30	623	57.8	2.5737874183366
30	624	57.9	2.9246445379799
30	625	58	2.6682056277046
30	626	58.1	2.5831346882199
30	627	58.2	2.7828628958194
30	628	58.3	2.7702399268687
30	629	58.4	2.4527724134716
30	630	58.5	2.7302602637047
30	631	58.6	2.8403861957019
30	632	58.7	2.5222846925224
30	633	58.8	3.1067424743136
30	634	58.9	2.6436095881724
30	635	59	2.6775106640865
30	636	59.1	2.7845308778395
30	637	59.2	2.8133558902014
30	638	59.3	3.0024859401544
30	639	59.4	2.6382872628591
30	640	59.5	2.9679409396455
30	641	59.6	2.980621272273
30	642	59.7	3.2691186390764
30	643	59.8	2.9386929480676
30	644	59.9	2.6329523407914
30	645	60	3.0219637273906
30	646	60.1	2.5743365479803
30	647	60.2	3.2788732365379
30	648	60.3	3.1825137063141
30	649	60.4	2.982321925518
30	650	60.5	3.2285078799553
30	651	60.6	3.106434701169
30	652	60.7	2.8028573557302
30	653	60.8	2.9049440277418
30	654	60.9	3.1511421912487
30	655	61	3.2174101831574
30	656	61.1	3.3151805827958
30	657	61.2	3.0788845115074
30	658	61.3	3.2831241789288
30	659	61.4	3.253558123301
30	660	61.5	3.1228760198419
30	661	61.6	3.4301196696378
30	662	61.7	2.793736455036
30	663	61.8	3.3137428391112
30	664	61.9	2.9807655343642
30	665	62	3.5587742774452
30	666	62.1	3.2556004236991
30	667	62.2	3.1078549334438
30	668	62.3	3.5874773400847
30	669	62.4	3.049046808618
30	670	62.5	3.1543086402717
30	671	62.6	2.7984129746788
30	672	62.7	2.7980889043816
30	673	62.8	2.7932533497395
30	674	62.9	3.2052330205722
30	675	63	3.4126349336386
30	676	63.1	2.8260565279404
30	677	63.2	3.3854174308657
30	678	63.3	3.8599280926742
30	679	63.4	3.3636174560313
30	680	63.5	3.6241228658863
30	681	63.6	3.3719796697043
30	682	63.7	3.2751756099314
30	683	63.8	2.9594235104186
30	684	63.9	3.8012122423186
30	685	64	3.7256344737696
30	686	64.1	3.0333222362557
30	687	64.2	3.6480331608839
30	688	64.3	3.6208827634889
30	689	64.4	3.3692183569541
30	690	64.5	3.0735175468733
30	691	64.6	3.7121752258475
30	692	64.7	3.4906812743686
30	693	64.8	3.5092866926319
30	694	64.9	3.1598498540501
30	695	65	3.3388229020433
30	696	65.1	3.642561189433
30	697	65.2	3.5743908231066
30	698	65.3	3.7883799162979
30	699	65.4	3.751303733828
30	700	65.5	3.7434402278515
30	701	65.6	3.5223825192068
30	702	65.7	3.1171967132519
30	703	65.8	4.1577243769661
30	704	65.9	3.9658986925447
30	705	66	3.5153874841387
30	706	66.1	3.8751669347778
30	707	66.2	3.5719037072634
30	708	66.3	3.1815237618704
30	709	66.4	3.2010043140695
30	710	66.5	3.5774519937144
30	711	66.6	3.4059621723979
30	712	66.7	3.6234102113495
30	713	66.8	4.4195195109302
30	714	66.9	4.3551398645857
30	715	67	3.2332727827473
30	716	67.1	3.6216083212272
30	717	67.2	3.9331681965662
30	718	67.3	3.8472038418474
30	719	67.4	3.4096103999074
30	720	67.5	3.7678797817515
30	721	67.6	4.0613828930385
30	722	67.7	3.4631736834668
30	723	67.8	4.1220422766813
30	724	67.9	3.9237102267847
30	725	68	3.7523307793269
30	726	68.1	3.3805817967331
30	727	68.2	4.5312807241995
30	728	68.3	4.4733487950856
30	729	68.4	4.3962267123044
30	730	68.5	4.3423214682648
30	731	68.6	3.977023861442
30	732	68.7	4.1743987406619
30	733	68.8	4.0045658275949
30	734	68.9	3.9071656153313
30	735	69	3.9691508861848
30	736	69.1	3.8832782408829
30	737	69.2	3.6406930743699
30	738	69.3	4.8009602671475
30	739	69.4	4.2370078474687
30	740	69.5	3.8764233951394
30	741	69.6	4.6745212431534
30	742	69.7	4.2062061090839
30	743	69.8	4.5203922166796
30	744	69.9	4.4784937086633
30	745	70	4.0802477074739
30	746	70.1	3.511367822985
30	747	70.2	2.5980823722697
30	748	70.3	2.1185814443286
29	148	10.3	0.75322315294937
29	149	10.4	0.71663500254069
29	150	10.5	0.67133788488499
29	151	10.6	0.68790881262566
29	152	10.7	0.61094514885653
29	153	10.8	0.66328615553083
29	154	10.9	0.559321893011
29	155	11	0.66780475876071
29	156	11.1	0.58460519000102
29	157	11.2	0.55801204106405
29	158	11.3	0.64624731671065
29	159	11.4	0.62496511600912
29	160	11.5	0.68098615789786
29	161	11.6	0.44329079929739
29	162	11.7	0.77731480970979
29	163	11.8	0.41453489437699
29	164	11.9	0.69093748219311
29	165	12	0.6466233914718
29	166	12.1	0.60893395533785
29	167	12.2	0.48330998662859
29	168	12.3	0.47513250941411
29	169	12.4	0.58844203138724
29	170	12.5	0.60800913143903
29	171	12.6	0.57278217449784
29	172	12.7	0.64288608273491
29	173	12.8	0.42976134670898
29	174	12.9	0.46556849246845
29	175	13	0.77158557651565
29	176	13.1	0.6650415353477
29	177	13.2	0.7651482812129
29	178	13.3	0.54073124937713
29	179	13.4	0.7919126403518
29	180	13.5	0.65270338505507
29	181	13.6	0.46695206286386
29	182	13.7	0.41713793827221
29	183	13.8	0.48873729724437
29	184	13.9	0.7438596890308
29	185	14	0.45199514189735
29	186	14.1	0.45196509957314
29	187	14.2	0.40855266284197
29	188	14.3	0.6105567839928
29	189	14.4	0.48033657446504
29	190	14.5	0.47963569900021
29	191	14.6	0.61540825488046
29	192	14.7	0.59180900780484
29	193	14.8	0.48778832973913
29	194	14.9	0.52844818653539
29	195	15	0.75269023049623
29	196	15.1	0.51174693936482
29	197	15.2	0.54403159320354
29	198	15.3	0.56719208350405
29	199	15.4	0.74265868579969
29	200	15.5	0.58505070870742
29	201	15.6	0.42213243255392
29	202	15.7	0.49655375182629
29	203	15.8	0.5912606687285
29	204	15.9	0.75763695742935
29	205	16	0.63413522355258
29	206	16.1	0.61055983090773
29	207	16.2	0.69417775543407
29	208	16.3	0.72546706218272
29	209	16.4	0.49030652539805
29	210	16.5	0.50523272883147
29	211	16.6	0.61753986561671
29	212	16.7	0.71337985731661
29	213	16.8	0.57262642066926
29	214	16.9	0.74591273069382
29	215	17	0.79248408079147
29	216	17.1	0.67034359835088
29	217	17.2	0.55294579965993
29	218	17.3	0.74013005448506
29	219	17.4	0.5551617110148
29	220	17.5	0.71107144579291
29	221	17.6	0.55322640053928
29	222	17.7	0.645404408779
29	223	17.8	0.42250076988712
29	224	17.9	0.43896061144769
29	225	18	0.52727188086137
29	226	18.1	0.62002000417561
29	227	18.2	0.65619683917612
29	228	18.3	0.55477461526171
29	229	18.4	0.6251872189343
29	230	18.5	0.43906056871638
29	231	18.6	0.52094752183184
29	232	18.7	0.76028785938397
29	233	18.8	0.77590981340036
29	234	18.9	0.41207637256012
29	235	19	0.53329331548885
29	236	19.1	0.53874398712069
29	237	19.2	0.53174485052004
29	238	19.3	0.73163616554812
29	239	19.4	0.71584697533399
29	240	19.5	0.65673913192004
29	241	19.6	0.7484294806607
29	242	19.7	0.49972554445267
29	243	19.8	0.67382866013795
29	244	19.9	0.55686773331836
29	245	20	0.65451569063589
29	246	20.1	0.66998110897839
29	247	20.2	0.57192128961906
29	248	20.3	0.78462982978672
29	249	20.4	0.62455939464271
29	250	20.5	0.5462903787382
29	251	20.6	0.40465046726167
29	252	20.7	0.41642029229552
29	253	20.8	0.75918207727373
29	254	20.9	0.53888387242332
29	255	21	0.71644929656759
29	256	21.1	0.54597644917667
29	257	21.2	0.73547619553283
29	258	21.3	0.40188017375767
29	259	21.4	0.53875667117536
29	260	21.5	0.56725986711681
29	261	21.6	0.69868335947395
29	262	21.7	0.63425256479531
29	263	21.8	0.61347569087521
29	264	21.9	0.61012099795043
29	265	22	0.70222976477817
29	266	22.1	0.55059595759958
29	267	22.2	0.73641216540709
29	268	22.3	0.6647969529964
29	269	22.4	0.75584994433448
29	270	22.5	0.53009907109663
29	271	22.6	0.53746816320345
29	272	22.7	0.67311930209399
29	273	22.8	0.74472682019696
29	274	22.9	0.48866180730983
29	275	23	0.72136705731973
29	276	23.1	0.4201715794392
29	277	23.2	0.6525099337101
29	278	23.3	0.53498925277963
29	279	23.4	0.4716027076356
29	280	23.5	0.79457134325057
29	281	23.6	0.761159491539
29	282	23.7	0.55086156269535
29	283	23.8	0.46482203733175
29	284	23.9	0.53053614757955
29	285	24	0.76156063955278
29	286	24.1	0.41122200042009
29	287	24.2	0.40941621391102
29	288	24.3	0.44872261257842
29	289	24.4	0.61253952067345
29	290	24.5	0.59615025129169
29	291	24.6	0.40929556367919
29	292	24.7	0.77771412283182
29	293	24.8	0.55806179279461
29	294	24.9	0.61953631443902
29	295	25	0.50429456746206
29	296	25.1	0.79200493106619
29	297	25.2	0.78432488441468
29	298	25.3	0.62331563141196
29	299	25.4	0.68687721621245
29	300	25.5	0.40816530780868
29	301	25.6	0.75192137416453
29	302	25.7	0.65622221240774
29	303	25.8	0.68154392028228
29	304	25.9	0.6076425855048
29	305	26	0.75250891428441
29	306	26.1	0.52453552549705
29	307	26.2	0.67280673068018
29	308	26.3	0.4478096427396
29	309	26.4	0.63429480465128
29	310	26.5	0.43270581085235
29	311	26.6	0.77434099959209
29	312	26.7	0.71327114673332
29	313	26.8	0.52301115226001
29	314	26.9	0.5739244537428
29	315	27	0.57335942061618
29	316	27.1	0.45395897440612
29	317	27.2	0.69384420355782
29	318	27.3	0.59641241561621
29	319	27.4	0.5907007788308
29	320	27.5	0.43331081736833
29	321	27.6	0.7624237976037
29	322	27.7	0.43153695520013
29	323	27.8	0.56962140193209
29	324	27.9	0.76675500534474
29	325	28	0.42828152086585
29	326	28.1	0.68891257438809
29	327	28.2	0.6725724180229
29	328	28.3	0.79625731930136
29	329	28.4	0.53303584950045
29	330	28.5	0.46306316833943
29	331	28.6	0.74728085519746
29	332	28.7	0.54113034456968
29	333	28.8	0.51346912086011
29	334	28.9	0.46344555113464
29	335	29	0.68423756361009
29	336	29.1	0.69410793427378
29	337	29.2	0.72672345461324
29	338	29.3	0.64087169934064
29	339	29.4	0.56539482679218
29	340	29.5	0.57887140633538
29	341	29.6	0.7919569797814
29	342	29.7	0.73402381576598
29	343	29.8	0.4684239886701
29	344	29.9	0.65207676170393
29	345	30	0.79812180716544
29	346	30.1	0.74142329469323
29	347	30.2	0.52887338427826
29	348	30.3	0.69199681254103
29	349	30.4	0.50592239182443
29	350	30.5	0.41512458203361
29	351	30.6	0.70049874410033
29	352	30.7	0.56953706564382
29	353	30.8	0.5631832294166
29	354	30.9	0.57109923940152
29	355	31	0.71076734773815
29	356	31.1	0.41890039630234
29	357	31.2	0.62114984858781
29	358	31.3	0.46143653355539
29	359	31.4	0.5202082890086
29	360	31.5	0.68102521933616
29	361	31.6	0.47448087213562
29	362	31.7	0.64139770446346
29	363	31.8	0.44755871966482
29	364	31.9	0.56749084964395
29	365	32	0.44730585617945
29	366	32.1	0.52298736339434
29	367	32.2	0.5098982874304
29	368	32.3	0.5994702467695
29	369	32.4	-1.1258228248293
29	370	32.5	-3.2993091107077
29	371	32.6	-3.3103892881977
29	372	32.7	-3.4676726585124
29	373	32.8	-3.1333822910907
29	374	32.9	-3.4555904382334
29	375	33	-3.4487150792553
29	376	33.1	-3.148931126819
29	377	33.2	-3.4003863072728
29	378	33.3	-3.1509511158365
29	379	33.4	-3.0825788476383
29	380	33.5	-3.2569236382992
29	381	33.6	-3.2546959357864
29	382	33.7	-3.1039498314358
29	383	33.8	-3.0864343121588
29	384	33.9	-3.0769170059057
29	385	34	-2.9898839344546
29	386	34.1	-2.894885726379
29	387	34.2	-3.1217217511462
29	388	34.3	-2.6548947018593
29	389	34.4	-2.9014402291253
29	390	34.5	-2.9876589602247
29	391	34.6	-2.7150711498639
29	392	34.7	-2.6841875072124
29	393	34.8	-2.4048282552129
29	394	34.9	-2.9722760451963
29	395	35	-2.4718180910551
29	396	35.1	-2.6251055420611
29	397	35.2	-2.1152635806659
29	398	35.3	-2.6872790695102
29	399	35.4	-2.0678914628237
29	400	35.5	-2.4570681707903
29	401	35.6	-2.0396250644751
29	402	35.7	-2.442136163256
29	403	35.8	-2.0814182172694
29	404	35.9	-1.9176974897671
29	405	36	-1.8897555027332
29	406	36.1	-1.7656239896644
29	407	36.2	-2.0494602598188
29	408	36.3	-1.6756591599691
29	409	36.4	-1.7689081561494
29	410	36.5	-1.6442433853368
29	411	36.6	-1.5800409066784
29	412	36.7	-1.3756378998387
29	413	36.8	-1.0206472694659
29	414	36.9	-1.4880030660529
29	415	37	-1.3822407017773
29	416	37.1	-0.90456513920808
29	417	37.2	-1.2590417809474
29	418	37.3	-0.85492192715834
29	419	37.4	-1.0286212957689
29	420	37.5	-0.8120495461832
29	421	37.6	-1.1275786617348
29	422	37.7	-0.56082216087345
29	423	37.8	-0.77711549313444
29	424	37.9	-0.85370790956356
29	425	38	-0.49268244666669
29	426	38.1	-0.33498447171932
29	427	38.2	-0.54764997137733
29	428	38.3	-0.56768568641457
29	429	38.4	-0.41249819459157
29	430	38.5	-0.3358425930752
29	431	38.6	-0.49523695599501
29	432	38.7	-0.26426469798096
29	433	38.8	-0.28297340643083
29	434	38.9	-0.27461523808995
29	435	39	-0.25644335255872
29	436	39.1	-0.17032438359105
29	437	39.2	-0.2098195400273
29	438	39.3	-0.16433112124695
29	439	39.4	-0.16394352308709
29	440	39.5	-0.20179786760754
29	441	39.6	-0.11201588692975
29	442	39.7	-0.10130856553327
29	443	39.8	-0.093574994909785
29	444	39.9	-0.10033168190921
29	445	40	-0.080976592269588
29	446	40.1	-0.095823859517886
29	447	40.2	-0.066851343016932
29	448	40.3	-0.076410108881858
29	449	40.4	-0.047496352168238
29	450	40.5	-0.047574037254476
29	451	40.6	-0.044828018366478
29	452	40.7	-0.045005023470231
29	453	40.8	-0.050557393055956
29	454	40.9	-0.029820780424456
29	455	41	-0.032166422137786
29	456	41.1	-0.032445419015427
29	457	41.2	-0.02519973272388
29	458	41.3	-0.013213253913059
29	459	41.4	-0.025482000620177
29	460	41.5	-0.014683436812473
29	461	41.6	-0.015202428203096
29	462	41.7	-0.021080046781645
29	463	41.8	-0.01037922185374
29	464	41.9	-0.012853725384415
29	465	42	-0.012257912755892
29	466	42.1	-0.011026455348346
29	467	42.2	-0.0078322253831616
29	468	42.3	-0.0089720760495166
29	469	42.4	-0.0049767172058446
29	470	42.5	-0.0084544444554135
29	471	42.6	-0.0040647046157422
29	472	42.7	-0.0075604764387276
29	473	42.8	-0.0040391999034047
29	474	42.9	-0.0033399456064273
29	475	43	-0.0054887843285702
29	476	43.1	-0.0030604262745163
29	477	43.2	-0.0024378195389971
29	478	43.3	-0.0029561203969812
29	479	43.4	-0.0031090784506786
29	480	43.5	-0.0018236689719357
29	481	43.6	-0.0024450352691914
29	482	43.7	-0.0021966851378438
29	483	43.8	-0.0017183400327547
29	484	43.9	-0.0016629563801706
29	485	44	-0.0013010066691328
29	486	44.1	-0.0014996460627192
29	487	44.2	-0.0012976647055291
29	488	44.3	-0.00063458325755172
29	489	44.4	-0.001159928339189
29	490	44.5	-0.00069297467216478
29	491	44.6	-0.0010089166018019
29	492	44.7	-0.00057032878098423
29	493	44.8	-0.00068117523146202
29	494	44.9	-0.00045717856707921
29	495	45	-0.00051580905137044
29	496	45.1	0.78036101939194
29	497	45.2	0.77181512229557
29	498	45.3	0.68917199537926
29	499	45.4	0.68343592936477
29	500	45.5	0.66039042390482
29	501	45.6	0.60163541845617
29	502	45.7	0.77917945650806
29	503	45.8	0.6406711353184
29	504	45.9	0.61263322158591
29	505	46	0.46216423119823
29	506	46.1	0.69064565323563
29	507	46.2	0.7036684891209
29	508	46.3	0.75988242216408
29	509	46.4	0.79342814749107
29	510	46.5	0.42818827275187
29	511	46.6	0.53203338310122
29	512	46.7	0.4859388358891
29	513	46.8	0.51860208585858
29	514	46.9	0.72734751775861
29	515	47	0.59504261380062
29	516	47.1	0.56782114775851
29	517	47.2	0.48498313864693
29	518	47.3	0.55740981511772
29	519	47.4	0.71263886075467
29	520	47.5	0.61793247312308
29	521	47.6	0.44845210444182
29	522	47.7	0.60309270406142
29	523	47.8	0.51377553902566
29	524	47.9	0.60553617663682
29	525	48	0.51658074045554
29	526	48.1	0.60074390862137
29	527	48.2	0.46217996887863
29	528	48.3	0.72226311219856
29	529	48.4	0.49066959405318
29	530	48.5	0.41029653279111
29	531	48.6	0.45507608773187
29	532	48.7	0.48782934034243
29	533	48.8	0.40598708782345
29	534	48.9	0.49857215816155
29	535	49	0.79838075777516
29	536	49.1	0.69220822546631
29	537	49.2	0.6358031434007
29	538	49.3	0.62871046923101
29	539	49.4	0.68086327128112
29	540	49.5	0.63954706341028
29	541	49.6	0.7517372014001
29	542	49.7	0.40772013058886
29	543	49.8	0.63755180500448
29	544	49.9	0.57231569737196
29	545	50	0.66255780020729
29	546	50.1	0.48445089040324
29	547	50.2	0.49038106547669
29	548	50.3	0.64020043322817
29	549	50.4	0.63710353290662
29	550	50.5	0.42951482692733
29	551	50.6	0.77862912900746
29	552	50.7	0.79442064072937
29	553	50.8	0.49176770048216
29	554	50.9	0.44685600064695
29	555	51	0.76415878674016
29	556	51.1	0.47583036199212
29	557	51.2	0.6317842152901
29	558	51.3	0.46815910311416
29	559	51.4	0.50918229445815
29	560	51.5	0.69754416681826
29	561	51.6	0.77785027325153
29	562	51.7	0.67936054645107
29	563	51.8	0.61659417850897
29	564	51.9	0.52668746644631
29	565	52	0.45894603058696
29	566	52.1	0.64802921945229
29	567	52.2	0.59626317368821
29	568	52.3	0.77726077083498
29	569	52.4	0.71736215772107
29	570	52.5	0.48903697682545
29	571	52.6	0.72865305859596
29	572	52.7	0.5649601452984
29	573	52.8	0.443180135265
29	574	52.9	0.72117828894407
29	575	53	0.42993462802842
29	576	53.1	0.48008164670319
29	577	53.2	0.61220067786053
29	578	53.3	0.67727595986798
29	579	53.4	0.63417300879955
29	580	53.5	0.54177190354094
29	581	53.6	0.48654081290588
29	582	53.7	0.59599325871095
29	583	53.8	0.74246825305745
29	584	53.9	0.68896156223491
29	585	54	0.66972609339282
29	586	54.1	0.41743770921603
29	587	54.2	0.74823506493122
29	588	54.3	0.58247761856765